# vtk DataFile Version 3.0
Sample curvilinear (STRUCTURED_GRID) warped surface
ASCII
DATASET STRUCTURED_GRID
DIMENSIONS 4 4 1
POINTS 16 float
0.0000 0.0000 0.0000
0.5000 0.0000 0.0000
1.0000 0.0000 0.0000
1.5000 0.0000 0.0000
0.0000 0.5000 0.0000
0.5000 0.5000 0.2000
1.0000 0.5000 0.4000
1.5000 0.5000 0.6000
0.0000 1.0000 0.0000
0.5000 1.0000 0.4000
1.0000 1.0000 0.8000
1.5000 1.0000 1.2000
0.0000 1.5000 0.0000
0.5000 1.5000 0.6000
1.0000 1.5000 1.2000
1.5000 1.5000 1.8000

POINT_DATA 16
SCALARS height float 1
LOOKUP_TABLE default
0.0000
0.0000
0.0000
0.0000
0.0000
0.2000
0.4000
0.6000
0.0000
0.4000
0.8000
1.2000
0.0000
0.6000
1.2000
1.8000
