# vtk DataFile Version 3.0
Block with four distinct vector fields
ASCII
DATASET STRUCTURED_GRID
DIMENSIONS 5 5 5
POINTS 125 float
0.0000 0.0000 0.0000
1.0000 0.0000 0.0000
2.0000 0.0000 0.0000
3.0000 0.0000 0.0000
4.0000 0.0000 0.0000
0.0000 1.0000 0.0000
1.0000 1.0000 0.0000
2.0000 1.0000 0.0000
3.0000 1.0000 0.0000
4.0000 1.0000 0.0000
0.0000 2.0000 0.0000
1.0000 2.0000 0.0000
2.0000 2.0000 0.0000
3.0000 2.0000 0.0000
4.0000 2.0000 0.0000
0.0000 3.0000 0.0000
1.0000 3.0000 0.0000
2.0000 3.0000 0.0000
3.0000 3.0000 0.0000
4.0000 3.0000 0.0000
0.0000 4.0000 0.0000
1.0000 4.0000 0.0000
2.0000 4.0000 0.0000
3.0000 4.0000 0.0000
4.0000 4.0000 0.0000
0.0000 0.0000 1.0000
1.0000 0.0000 1.0000
2.0000 0.0000 1.0000
3.0000 0.0000 1.0000
4.0000 0.0000 1.0000
0.0000 1.0000 1.0000
1.0000 1.0000 1.0000
2.0000 1.0000 1.0000
3.0000 1.0000 1.0000
4.0000 1.0000 1.0000
0.0000 2.0000 1.0000
1.0000 2.0000 1.0000
2.0000 2.0000 1.0000
3.0000 2.0000 1.0000
4.0000 2.0000 1.0000
0.0000 3.0000 1.0000
1.0000 3.0000 1.0000
2.0000 3.0000 1.0000
3.0000 3.0000 1.0000
4.0000 3.0000 1.0000
0.0000 4.0000 1.0000
1.0000 4.0000 1.0000
2.0000 4.0000 1.0000
3.0000 4.0000 1.0000
4.0000 4.0000 1.0000
0.0000 0.0000 2.0000
1.0000 0.0000 2.0000
2.0000 0.0000 2.0000
3.0000 0.0000 2.0000
4.0000 0.0000 2.0000
0.0000 1.0000 2.0000
1.0000 1.0000 2.0000
2.0000 1.0000 2.0000
3.0000 1.0000 2.0000
4.0000 1.0000 2.0000
0.0000 2.0000 2.0000
1.0000 2.0000 2.0000
2.0000 2.0000 2.0000
3.0000 2.0000 2.0000
4.0000 2.0000 2.0000
0.0000 3.0000 2.0000
1.0000 3.0000 2.0000
2.0000 3.0000 2.0000
3.0000 3.0000 2.0000
4.0000 3.0000 2.0000
0.0000 4.0000 2.0000
1.0000 4.0000 2.0000
2.0000 4.0000 2.0000
3.0000 4.0000 2.0000
4.0000 4.0000 2.0000
0.0000 0.0000 3.0000
1.0000 0.0000 3.0000
2.0000 0.0000 3.0000
3.0000 0.0000 3.0000
4.0000 0.0000 3.0000
0.0000 1.0000 3.0000
1.0000 1.0000 3.0000
2.0000 1.0000 3.0000
3.0000 1.0000 3.0000
4.0000 1.0000 3.0000
0.0000 2.0000 3.0000
1.0000 2.0000 3.0000
2.0000 2.0000 3.0000
3.0000 2.0000 3.0000
4.0000 2.0000 3.0000
0.0000 3.0000 3.0000
1.0000 3.0000 3.0000
2.0000 3.0000 3.0000
3.0000 3.0000 3.0000
4.0000 3.0000 3.0000
0.0000 4.0000 3.0000
1.0000 4.0000 3.0000
2.0000 4.0000 3.0000
3.0000 4.0000 3.0000
4.0000 4.0000 3.0000
0.0000 0.0000 4.0000
1.0000 0.0000 4.0000
2.0000 0.0000 4.0000
3.0000 0.0000 4.0000
4.0000 0.0000 4.0000
0.0000 1.0000 4.0000
1.0000 1.0000 4.0000
2.0000 1.0000 4.0000
3.0000 1.0000 4.0000
4.0000 1.0000 4.0000
0.0000 2.0000 4.0000
1.0000 2.0000 4.0000
2.0000 2.0000 4.0000
3.0000 2.0000 4.0000
4.0000 2.0000 4.0000
0.0000 3.0000 4.0000
1.0000 3.0000 4.0000
2.0000 3.0000 4.0000
3.0000 3.0000 4.0000
4.0000 3.0000 4.0000
0.0000 4.0000 4.0000
1.0000 4.0000 4.0000
2.0000 4.0000 4.0000
3.0000 4.0000 4.0000
4.0000 4.0000 4.0000

POINT_DATA 125
SCALARS DistFromCenter float 1
LOOKUP_TABLE default
3.4641
3.0000
2.8284
3.0000
3.4641
3.0000
2.4495
2.2361
2.4495
3.0000
2.8284
2.2361
2.0000
2.2361
2.8284
3.0000
2.4495
2.2361
2.4495
3.0000
3.4641
3.0000
2.8284
3.0000
3.4641
3.0000
2.4495
2.2361
2.4495
3.0000
2.4495
1.7321
1.4142
1.7321
2.4495
2.2361
1.4142
1.0000
1.4142
2.2361
2.4495
1.7321
1.4142
1.7321
2.4495
3.0000
2.4495
2.2361
2.4495
3.0000
2.8284
2.2361
2.0000
2.2361
2.8284
2.2361
1.4142
1.0000
1.4142
2.2361
2.0000
1.0000
0.0000
1.0000
2.0000
2.2361
1.4142
1.0000
1.4142
2.2361
2.8284
2.2361
2.0000
2.2361
2.8284
3.0000
2.4495
2.2361
2.4495
3.0000
2.4495
1.7321
1.4142
1.7321
2.4495
2.2361
1.4142
1.0000
1.4142
2.2361
2.4495
1.7321
1.4142
1.7321
2.4495
3.0000
2.4495
2.2361
2.4495
3.0000
3.4641
3.0000
2.8284
3.0000
3.4641
3.0000
2.4495
2.2361
2.4495
3.0000
2.8284
2.2361
2.0000
2.2361
2.8284
3.0000
2.4495
2.2361
2.4495
3.0000
3.4641
3.0000
2.8284
3.0000
3.4641

VECTORS Wind_Flow float
1.0000 0.0000 0.0000
1.0000 0.0000 0.0000
1.0000 0.0000 0.0000
1.0000 0.0000 0.0000
1.0000 0.0000 0.0000
1.0000 0.0000 0.0000
1.0000 0.0000 0.0000
1.0000 0.0000 0.0000
1.0000 0.0000 0.0000
1.0000 0.0000 0.0000
1.0000 0.0000 0.0000
1.0000 0.0000 0.0000
1.0000 0.0000 0.0000
1.0000 0.0000 0.0000
1.0000 0.0000 0.0000
1.0000 0.0000 0.0000
1.0000 0.0000 0.0000
1.0000 0.0000 0.0000
1.0000 0.0000 0.0000
1.0000 0.0000 0.0000
1.0000 0.0000 0.0000
1.0000 0.0000 0.0000
1.0000 0.0000 0.0000
1.0000 0.0000 0.0000
1.0000 0.0000 0.0000
1.0000 0.4000 0.0000
1.0000 0.4000 0.0000
1.0000 0.4000 0.0000
1.0000 0.4000 0.0000
1.0000 0.4000 0.0000
1.0000 0.4000 0.0000
1.0000 0.4000 0.0000
1.0000 0.4000 0.0000
1.0000 0.4000 0.0000
1.0000 0.4000 0.0000
1.0000 0.4000 0.0000
1.0000 0.4000 0.0000
1.0000 0.4000 0.0000
1.0000 0.4000 0.0000
1.0000 0.4000 0.0000
1.0000 0.4000 0.0000
1.0000 0.4000 0.0000
1.0000 0.4000 0.0000
1.0000 0.4000 0.0000
1.0000 0.4000 0.0000
1.0000 0.4000 0.0000
1.0000 0.4000 0.0000
1.0000 0.4000 0.0000
1.0000 0.4000 0.0000
1.0000 0.4000 0.0000
1.0000 0.8000 0.0000
1.0000 0.8000 0.0000
1.0000 0.8000 0.0000
1.0000 0.8000 0.0000
1.0000 0.8000 0.0000
1.0000 0.8000 0.0000
1.0000 0.8000 0.0000
1.0000 0.8000 0.0000
1.0000 0.8000 0.0000
1.0000 0.8000 0.0000
1.0000 0.8000 0.0000
1.0000 0.8000 0.0000
1.0000 0.8000 0.0000
1.0000 0.8000 0.0000
1.0000 0.8000 0.0000
1.0000 0.8000 0.0000
1.0000 0.8000 0.0000
1.0000 0.8000 0.0000
1.0000 0.8000 0.0000
1.0000 0.8000 0.0000
1.0000 0.8000 0.0000
1.0000 0.8000 0.0000
1.0000 0.8000 0.0000
1.0000 0.8000 0.0000
1.0000 0.8000 0.0000
1.0000 1.2000 0.0000
1.0000 1.2000 0.0000
1.0000 1.2000 0.0000
1.0000 1.2000 0.0000
1.0000 1.2000 0.0000
1.0000 1.2000 0.0000
1.0000 1.2000 0.0000
1.0000 1.2000 0.0000
1.0000 1.2000 0.0000
1.0000 1.2000 0.0000
1.0000 1.2000 0.0000
1.0000 1.2000 0.0000
1.0000 1.2000 0.0000
1.0000 1.2000 0.0000
1.0000 1.2000 0.0000
1.0000 1.2000 0.0000
1.0000 1.2000 0.0000
1.0000 1.2000 0.0000
1.0000 1.2000 0.0000
1.0000 1.2000 0.0000
1.0000 1.2000 0.0000
1.0000 1.2000 0.0000
1.0000 1.2000 0.0000
1.0000 1.2000 0.0000
1.0000 1.2000 0.0000
1.0000 1.6000 0.0000
1.0000 1.6000 0.0000
1.0000 1.6000 0.0000
1.0000 1.6000 0.0000
1.0000 1.6000 0.0000
1.0000 1.6000 0.0000
1.0000 1.6000 0.0000
1.0000 1.6000 0.0000
1.0000 1.6000 0.0000
1.0000 1.6000 0.0000
1.0000 1.6000 0.0000
1.0000 1.6000 0.0000
1.0000 1.6000 0.0000
1.0000 1.6000 0.0000
1.0000 1.6000 0.0000
1.0000 1.6000 0.0000
1.0000 1.6000 0.0000
1.0000 1.6000 0.0000
1.0000 1.6000 0.0000
1.0000 1.6000 0.0000
1.0000 1.6000 0.0000
1.0000 1.6000 0.0000
1.0000 1.6000 0.0000
1.0000 1.6000 0.0000
1.0000 1.6000 0.0000

VECTORS Vortex_Flow float
1.0000 -1.0000 0.1000
1.0000 -0.5000 0.1000
1.0000 0.0000 0.1000
1.0000 0.5000 0.1000
1.0000 1.0000 0.1000
0.5000 -1.0000 0.1000
0.5000 -0.5000 0.1000
0.5000 0.0000 0.1000
0.5000 0.5000 0.1000
0.5000 1.0000 0.1000
-0.0000 -1.0000 0.1000
-0.0000 -0.5000 0.1000
-0.0000 0.0000 0.1000
-0.0000 0.5000 0.1000
-0.0000 1.0000 0.1000
-0.5000 -1.0000 0.1000
-0.5000 -0.5000 0.1000
-0.5000 0.0000 0.1000
-0.5000 0.5000 0.1000
-0.5000 1.0000 0.1000
-1.0000 -1.0000 0.1000
-1.0000 -0.5000 0.1000
-1.0000 0.0000 0.1000
-1.0000 0.5000 0.1000
-1.0000 1.0000 0.1000
1.0000 -1.0000 0.1000
1.0000 -0.5000 0.1000
1.0000 0.0000 0.1000
1.0000 0.5000 0.1000
1.0000 1.0000 0.1000
0.5000 -1.0000 0.1000
0.5000 -0.5000 0.1000
0.5000 0.0000 0.1000
0.5000 0.5000 0.1000
0.5000 1.0000 0.1000
-0.0000 -1.0000 0.1000
-0.0000 -0.5000 0.1000
-0.0000 0.0000 0.1000
-0.0000 0.5000 0.1000
-0.0000 1.0000 0.1000
-0.5000 -1.0000 0.1000
-0.5000 -0.5000 0.1000
-0.5000 0.0000 0.1000
-0.5000 0.5000 0.1000
-0.5000 1.0000 0.1000
-1.0000 -1.0000 0.1000
-1.0000 -0.5000 0.1000
-1.0000 0.0000 0.1000
-1.0000 0.5000 0.1000
-1.0000 1.0000 0.1000
1.0000 -1.0000 0.1000
1.0000 -0.5000 0.1000
1.0000 0.0000 0.1000
1.0000 0.5000 0.1000
1.0000 1.0000 0.1000
0.5000 -1.0000 0.1000
0.5000 -0.5000 0.1000
0.5000 0.0000 0.1000
0.5000 0.5000 0.1000
0.5000 1.0000 0.1000
-0.0000 -1.0000 0.1000
-0.0000 -0.5000 0.1000
-0.0000 0.0000 0.1000
-0.0000 0.5000 0.1000
-0.0000 1.0000 0.1000
-0.5000 -1.0000 0.1000
-0.5000 -0.5000 0.1000
-0.5000 0.0000 0.1000
-0.5000 0.5000 0.1000
-0.5000 1.0000 0.1000
-1.0000 -1.0000 0.1000
-1.0000 -0.5000 0.1000
-1.0000 0.0000 0.1000
-1.0000 0.5000 0.1000
-1.0000 1.0000 0.1000
1.0000 -1.0000 0.1000
1.0000 -0.5000 0.1000
1.0000 0.0000 0.1000
1.0000 0.5000 0.1000
1.0000 1.0000 0.1000
0.5000 -1.0000 0.1000
0.5000 -0.5000 0.1000
0.5000 0.0000 0.1000
0.5000 0.5000 0.1000
0.5000 1.0000 0.1000
-0.0000 -1.0000 0.1000
-0.0000 -0.5000 0.1000
-0.0000 0.0000 0.1000
-0.0000 0.5000 0.1000
-0.0000 1.0000 0.1000
-0.5000 -1.0000 0.1000
-0.5000 -0.5000 0.1000
-0.5000 0.0000 0.1000
-0.5000 0.5000 0.1000
-0.5000 1.0000 0.1000
-1.0000 -1.0000 0.1000
-1.0000 -0.5000 0.1000
-1.0000 0.0000 0.1000
-1.0000 0.5000 0.1000
-1.0000 1.0000 0.1000
1.0000 -1.0000 0.1000
1.0000 -0.5000 0.1000
1.0000 0.0000 0.1000
1.0000 0.5000 0.1000
1.0000 1.0000 0.1000
0.5000 -1.0000 0.1000
0.5000 -0.5000 0.1000
0.5000 0.0000 0.1000
0.5000 0.5000 0.1000
0.5000 1.0000 0.1000
-0.0000 -1.0000 0.1000
-0.0000 -0.5000 0.1000
-0.0000 0.0000 0.1000
-0.0000 0.5000 0.1000
-0.0000 1.0000 0.1000
-0.5000 -1.0000 0.1000
-0.5000 -0.5000 0.1000
-0.5000 0.0000 0.1000
-0.5000 0.5000 0.1000
-0.5000 1.0000 0.1000
-1.0000 -1.0000 0.1000
-1.0000 -0.5000 0.1000
-1.0000 0.0000 0.1000
-1.0000 0.5000 0.1000
-1.0000 1.0000 0.1000

VECTORS Divergent_Flow float
-0.4617 -0.4617 -0.4617
-0.2666 -0.5332 -0.5332
0.0000 -0.5655 -0.5655
0.2666 -0.5332 -0.5332
0.4617 -0.4617 -0.4617
-0.5332 -0.2666 -0.5332
-0.3265 -0.3265 -0.6529
0.0000 -0.3576 -0.7152
0.3265 -0.3265 -0.6529
0.5332 -0.2666 -0.5332
-0.5655 0.0000 -0.5655
-0.3576 0.0000 -0.7152
0.0000 0.0000 -0.7996
0.3576 0.0000 -0.7152
0.5655 0.0000 -0.5655
-0.5332 0.2666 -0.5332
-0.3265 0.3265 -0.6529
0.0000 0.3576 -0.7152
0.3265 0.3265 -0.6529
0.5332 0.2666 -0.5332
-0.4617 0.4617 -0.4617
-0.2666 0.5332 -0.5332
0.0000 0.5655 -0.5655
0.2666 0.5332 -0.5332
0.4617 0.4617 -0.4617
-0.5332 -0.5332 -0.2666
-0.3265 -0.6529 -0.3265
0.0000 -0.7152 -0.3576
0.3265 -0.6529 -0.3265
0.5332 -0.5332 -0.2666
-0.6529 -0.3265 -0.3265
-0.4616 -0.4616 -0.4616
0.0000 -0.5653 -0.5653
0.4616 -0.4616 -0.4616
0.6529 -0.3265 -0.3265
-0.7152 0.0000 -0.3576
-0.5653 0.0000 -0.5653
0.0000 0.0000 -0.7992
0.5653 0.0000 -0.5653
0.7152 0.0000 -0.3576
-0.6529 0.3265 -0.3265
-0.4616 0.4616 -0.4616
0.0000 0.5653 -0.5653
0.4616 0.4616 -0.4616
0.6529 0.3265 -0.3265
-0.5332 0.5332 -0.2666
-0.3265 0.6529 -0.3265
0.0000 0.7152 -0.3576
0.3265 0.6529 -0.3265
0.5332 0.5332 -0.2666
-0.5655 -0.5655 0.0000
-0.3576 -0.7152 0.0000
0.0000 -0.7996 0.0000
0.3576 -0.7152 0.0000
0.5655 -0.5655 0.0000
-0.7152 -0.3576 0.0000
-0.5653 -0.5653 0.0000
0.0000 -0.7992 0.0000
0.5653 -0.5653 0.0000
0.7152 -0.3576 0.0000
-0.7996 0.0000 0.0000
-0.7992 0.0000 0.0000
0.0000 0.0000 0.0000
0.7992 0.0000 0.0000
0.7996 0.0000 0.0000
-0.7152 0.3576 0.0000
-0.5653 0.5653 0.0000
0.0000 0.7992 0.0000
0.5653 0.5653 0.0000
0.7152 0.3576 0.0000
-0.5655 0.5655 0.0000
-0.3576 0.7152 0.0000
0.0000 0.7996 0.0000
0.3576 0.7152 0.0000
0.5655 0.5655 0.0000
-0.5332 -0.5332 0.2666
-0.3265 -0.6529 0.3265
0.0000 -0.7152 0.3576
0.3265 -0.6529 0.3265
0.5332 -0.5332 0.2666
-0.6529 -0.3265 0.3265
-0.4616 -0.4616 0.4616
0.0000 -0.5653 0.5653
0.4616 -0.4616 0.4616
0.6529 -0.3265 0.3265
-0.7152 0.0000 0.3576
-0.5653 0.0000 0.5653
0.0000 0.0000 0.7992
0.5653 0.0000 0.5653
0.7152 0.0000 0.3576
-0.6529 0.3265 0.3265
-0.4616 0.4616 0.4616
0.0000 0.5653 0.5653
0.4616 0.4616 0.4616
0.6529 0.3265 0.3265
-0.5332 0.5332 0.2666
-0.3265 0.6529 0.3265
0.0000 0.7152 0.3576
0.3265 0.6529 0.3265
0.5332 0.5332 0.2666
-0.4617 -0.4617 0.4617
-0.2666 -0.5332 0.5332
0.0000 -0.5655 0.5655
0.2666 -0.5332 0.5332
0.4617 -0.4617 0.4617
-0.5332 -0.2666 0.5332
-0.3265 -0.3265 0.6529
0.0000 -0.3576 0.7152
0.3265 -0.3265 0.6529
0.5332 -0.2666 0.5332
-0.5655 0.0000 0.5655
-0.3576 0.0000 0.7152
0.0000 0.0000 0.7996
0.3576 0.0000 0.7152
0.5655 0.0000 0.5655
-0.5332 0.2666 0.5332
-0.3265 0.3265 0.6529
0.0000 0.3576 0.7152
0.3265 0.3265 0.6529
0.5332 0.2666 0.5332
-0.4617 0.4617 0.4617
-0.2666 0.5332 0.5332
0.0000 0.5655 0.5655
0.2666 0.5332 0.5332
0.4617 0.4617 0.4617

VECTORS Wave_Flow float
1.2000 0.0000 0.6000
1.2000 0.6000 0.6000
1.2000 0.0000 0.6000
1.2000 -0.6000 0.6000
1.2000 -0.0000 0.6000
1.2000 0.0000 0.0000
1.2000 0.6000 0.0000
1.2000 0.0000 0.0000
1.2000 -0.6000 0.0000
1.2000 -0.0000 0.0000
1.2000 0.0000 -0.6000
1.2000 0.6000 -0.6000
1.2000 0.0000 -0.6000
1.2000 -0.6000 -0.6000
1.2000 -0.0000 -0.6000
1.2000 0.0000 -0.0000
1.2000 0.6000 -0.0000
1.2000 0.0000 -0.0000
1.2000 -0.6000 -0.0000
1.2000 -0.0000 -0.0000
1.2000 0.0000 0.6000
1.2000 0.6000 0.6000
1.2000 0.0000 0.6000
1.2000 -0.6000 0.6000
1.2000 -0.0000 0.6000
1.2000 0.0000 0.6000
1.2000 0.6000 0.6000
1.2000 0.0000 0.6000
1.2000 -0.6000 0.6000
1.2000 -0.0000 0.6000
1.2000 0.0000 0.0000
1.2000 0.6000 0.0000
1.2000 0.0000 0.0000
1.2000 -0.6000 0.0000
1.2000 -0.0000 0.0000
1.2000 0.0000 -0.6000
1.2000 0.6000 -0.6000
1.2000 0.0000 -0.6000
1.2000 -0.6000 -0.6000
1.2000 -0.0000 -0.6000
1.2000 0.0000 -0.0000
1.2000 0.6000 -0.0000
1.2000 0.0000 -0.0000
1.2000 -0.6000 -0.0000
1.2000 -0.0000 -0.0000
1.2000 0.0000 0.6000
1.2000 0.6000 0.6000
1.2000 0.0000 0.6000
1.2000 -0.6000 0.6000
1.2000 -0.0000 0.6000
1.2000 0.0000 0.6000
1.2000 0.6000 0.6000
1.2000 0.0000 0.6000
1.2000 -0.6000 0.6000
1.2000 -0.0000 0.6000
1.2000 0.0000 0.0000
1.2000 0.6000 0.0000
1.2000 0.0000 0.0000
1.2000 -0.6000 0.0000
1.2000 -0.0000 0.0000
1.2000 0.0000 -0.6000
1.2000 0.6000 -0.6000
1.2000 0.0000 -0.6000
1.2000 -0.6000 -0.6000
1.2000 -0.0000 -0.6000
1.2000 0.0000 -0.0000
1.2000 0.6000 -0.0000
1.2000 0.0000 -0.0000
1.2000 -0.6000 -0.0000
1.2000 -0.0000 -0.0000
1.2000 0.0000 0.6000
1.2000 0.6000 0.6000
1.2000 0.0000 0.6000
1.2000 -0.6000 0.6000
1.2000 -0.0000 0.6000
1.2000 0.0000 0.6000
1.2000 0.6000 0.6000
1.2000 0.0000 0.6000
1.2000 -0.6000 0.6000
1.2000 -0.0000 0.6000
1.2000 0.0000 0.0000
1.2000 0.6000 0.0000
1.2000 0.0000 0.0000
1.2000 -0.6000 0.0000
1.2000 -0.0000 0.0000
1.2000 0.0000 -0.6000
1.2000 0.6000 -0.6000
1.2000 0.0000 -0.6000
1.2000 -0.6000 -0.6000
1.2000 -0.0000 -0.6000
1.2000 0.0000 -0.0000
1.2000 0.6000 -0.0000
1.2000 0.0000 -0.0000
1.2000 -0.6000 -0.0000
1.2000 -0.0000 -0.0000
1.2000 0.0000 0.6000
1.2000 0.6000 0.6000
1.2000 0.0000 0.6000
1.2000 -0.6000 0.6000
1.2000 -0.0000 0.6000
1.2000 0.0000 0.6000
1.2000 0.6000 0.6000
1.2000 0.0000 0.6000
1.2000 -0.6000 0.6000
1.2000 -0.0000 0.6000
1.2000 0.0000 0.0000
1.2000 0.6000 0.0000
1.2000 0.0000 0.0000
1.2000 -0.6000 0.0000
1.2000 -0.0000 0.0000
1.2000 0.0000 -0.6000
1.2000 0.6000 -0.6000
1.2000 0.0000 -0.6000
1.2000 -0.6000 -0.6000
1.2000 -0.0000 -0.6000
1.2000 0.0000 -0.0000
1.2000 0.6000 -0.0000
1.2000 0.0000 -0.0000
1.2000 -0.6000 -0.0000
1.2000 -0.0000 -0.0000
1.2000 0.0000 0.6000
1.2000 0.6000 0.6000
1.2000 0.0000 0.6000
1.2000 -0.6000 0.6000
1.2000 -0.0000 0.6000
