# vtk DataFile Version 3.0
Cube Example ASCII
ASCII
DATASET UNSTRUCTURED_GRID

POINTS 8 float
-0.5 -0.5 -0.5
0.5 -0.5 -0.5
0.5 0.5 -0.5
-0.5 0.5 -0.5
-0.5 -0.5 0.5
0.5 -0.5 0.5
0.5 0.5 0.5
-0.5 0.5 0.5

CELLS 1 9
8 0 1 2 3 4 5 6 7

CELL_TYPES 1
12

POINT_DATA 8
SCALARS Temperature float 1
LOOKUP_TABLE default
20.0 20.0 20.0 20.0 120.0 120.0 120.0 120.0
SCALARS Position_X float 1
LOOKUP_TABLE default
-0.5 0.5 0.5 -0.5 -0.5 0.5 0.5 -0.5

SCALARS Position_Y float 1
LOOKUP_TABLE default
-0.5 -0.5 0.5 0.5 -0.5 -0.5 0.5 0.5

SCALARS Position_Z float 1
LOOKUP_TABLE default
-0.5 -0.5 -0.5 -0.5 0.5 0.5 0.5 0.5

